Program Version,EnergyPlus, Version 9.5.0-de239b2e5f, YMD=2022.10.31 20:37
1,5,Environment Title[],Latitude[deg],Longitude[deg],Time Zone[],Elevation[m]
2,8,Day of Simulation[],Month[],Day of Month[],DST Indicator[1=yes 0=no],Hour[],StartMinute[],EndMinute[],DayType
3,5,Cumulative Day of Simulation[],Month[],Day of Month[],DST Indicator[1=yes 0=no],DayType  ! When Daily Report Variables Requested
4,2,Cumulative Days of Simulation[],Month[]  ! When Monthly Report Variables Requested
5,1,Cumulative Days of Simulation[] ! When Run Period Report Variables Requested
6,1,Calendar Year of Simulation[] ! When Annual Report Variables Requested
7,1,Environment,Site Outdoor Air Drybulb Temperature [C] !TimeStep
8,1,ZONE ONE,Zone Windows Total Transmitted Solar Radiation Rate [W] !TimeStep
9,1,ZN001:WALL001,Surface Outside Face Sunlit Fraction [] !TimeStep
10,1,ZN001:WALL001,Surface Outside Face Incident Solar Radiation Rate per Area [W/m2] !TimeStep
11,1,ZN001:WALL001:WIN001,Surface Outside Face Sunlit Fraction [] !TimeStep
12,1,ZN001:WALL001:WIN001,Surface Outside Face Incident Solar Radiation Rate per Area [W/m2] !TimeStep
13,1,ZN001:WALL001:WIN001,Surface Window Transmitted Solar Radiation Rate [W] !TimeStep
14,1,ZN001:WALL001,Surface Inside Face Temperature [C] !TimeStep
15,1,ZN001:WALL001,Surface Outside Face Temperature [C] !TimeStep
16,1,ZN001:WALL001:WIN001,Surface Inside Face Temperature [C] !TimeStep
17,1,ZN001:WALL001:WIN001,Surface Outside Face Temperature [C] !TimeStep
18,1,ZONE ONE,Zone Mean Air Temperature [C] !TimeStep
End of Data Dictionary
1,RUN PERIOD 1,  41.98, -87.92,  -6.00, 201.00
2,1, 1, 1, 0, 1, 0.00,15.00,Tuesday
7,-4.324999999999999
8,0.0
9,0.0
10,0.0
11,0.0
12,0.0
13,0.0
14,9.097733723514243
15,-5.8383545149303199
16,6.238029916167875
17,-3.8454685041965037
18,9.635329095867349
2,1, 1, 1, 0, 1,15.00,30.00,Tuesday
7,-6.949999999999999
8,0.0
9,0.0
10,0.0
11,0.0
12,0.0
13,0.0
14,8.910051982927382
15,-8.305199827627578
16,5.638929977607063
17,-5.932769782306764
18,9.527005551191986
2,1, 1, 1, 0, 1,30.00,45.00,Tuesday
7,-9.575
8,0.0
9,0.0
10,0.0
11,0.0
12,0.0
13,0.0
14,8.702062245739674
15,-10.779959665424878
16,5.032420825472968
17,-8.026086638230254
18,9.387677154400422
2,1, 1, 1, 0, 1,45.00,60.00,Tuesday
7,-12.2
8,0.0
9,0.0
10,0.0
11,0.0
12,0.0
13,0.0
14,8.47826272784891
15,-13.261369667415888
16,4.410503788064659
17,-10.126811416308272
18,9.22728710067708
2,1, 1, 1, 0, 2, 0.00,15.00,Tuesday
7,-12.075
8,0.0
9,0.0
10,0.0
11,0.0
12,0.0
13,0.0
14,8.399616032014782
15,-13.061909340082327
16,4.334196529995438
17,-9.96306257661513
18,9.082797687573337
2,1, 1, 1, 0, 2,15.00,30.00,Tuesday
7,-11.95
8,0.0
9,0.0
10,0.0
11,0.0
12,0.0
13,0.0
14,8.308235237986477
15,-12.885047019103272
16,4.290693246305636
17,-9.8207247555398
18,8.970473395476934
2,1, 1, 1, 0, 2,30.00,45.00,Tuesday
7,-11.825
8,0.0
9,0.0
10,0.0
11,0.0
12,0.0
13,0.0
14,8.234126345548498
15,-12.707049136956508
16,4.253270107080311
17,-9.677899314321508
18,8.884195178939239
2,1, 1, 1, 0, 2,45.00,60.00,Tuesday
7,-11.7
8,0.0
9,0.0
10,0.0
11,0.0
12,0.0
13,0.0
14,8.171020684659246
15,-12.529145073289162
16,4.2285453909644279
17,-9.532453549469324
18,8.812676648830257
2,1, 1, 1, 0, 3, 0.00,15.00,Tuesday
7,-11.549999999999999
8,0.0
9,0.0
10,0.0
11,0.0
12,0.0
13,0.0
14,8.109560917323226
15,-12.40143256753499
16,4.212944457852927
17,-9.379454448022273
18,8.747128357976154
2,1, 1, 1, 0, 3,15.00,30.00,Tuesday
7,-11.399999999999999
8,0.0
9,0.0
10,0.0
11,0.0
12,0.0
13,0.0
14,8.051059429973036
15,-12.275016735926072
16,4.1990344797522429
17,-9.226156988818503
18,8.683427552588654
2,1, 1, 1, 0, 3,30.00,45.00,Tuesday
7,-11.25
8,0.0
9,0.0
10,0.0
11,0.0
12,0.0
13,0.0
14,7.993309796215573
15,-12.150037175400579
16,4.186773847556424
17,-9.072542618251874
18,8.620520837719015
2,1, 1, 1, 0, 3,45.00,60.00,Tuesday
7,-11.1
8,0.0
9,0.0
10,0.0
11,0.0
12,0.0
13,0.0
14,7.936037641381001
15,-12.026547065054017
16,4.1751304613503639
17,-8.918867769361725
18,8.558372302691558
2,1, 1, 1, 0, 4, 0.00,15.00,Tuesday
7,-11.1
8,0.0
9,0.0
10,0.0
11,0.0
12,0.0
13,0.0
14,7.874918792452246
15,-12.000508784331478
16,4.1112162279146109
17,-8.966294269636137
18,8.496061538636406
2,1, 1, 1, 0, 4,15.00,30.00,Tuesday
7,-11.1
8,0.0
9,0.0
10,0.0
11,0.0
12,0.0
13,0.0
14,7.81420766848512
15,-11.97546714420451
16,4.050729952776578
17,-9.012152039107207
18,8.43322313558577
2,1, 1, 1, 0, 4,30.00,45.00,Tuesday
7,-11.1
8,0.0
9,0.0
10,0.0
11,0.0
12,0.0
13,0.0
14,7.7532902676909629
15,-11.951846548426808
16,3.9906253132704139
17,-9.056864786957988
18,8.37001255457775
2,1, 1, 1, 0, 4,45.00,60.00,Tuesday
7,-11.1
8,0.0
9,0.0
10,0.0
11,0.0
12,0.0
13,0.0
14,7.6922967965907
15,-11.92951961472092
16,3.9307350110327095
17,-9.10036283477831
18,8.306693822732728
2,1, 1, 1, 0, 5, 0.00,15.00,Tuesday
7,-10.975
8,0.0
9,0.0
10,0.0
11,0.0
12,0.0
13,0.0
14,7.636892854675069
15,-11.807806076767724
16,3.9090675361472337
17,-9.016068207998672
18,8.244559719965276
2,1, 1, 1, 0, 5,15.00,30.00,Tuesday
7,-10.85
8,0.0
9,0.0
10,0.0
11,0.0
12,0.0
13,0.0
14,7.581740596599254
15,-11.686144730945701
16,3.885019903857369
17,-8.923564655911548
18,8.184104115575595
2,1, 1, 1, 0, 5,30.00,45.00,Tuesday
7,-10.725
8,0.0
9,0.0
10,0.0
11,0.0
12,0.0
13,0.0
14,7.527676472959911
15,-11.564459288675034
16,3.8612918374268476
17,-8.830202518329657
18,8.125068528291426
2,1, 1, 1, 0, 5,45.00,60.00,Tuesday
7,-10.6
8,0.0
9,0.0
10,0.0
11,0.0
12,0.0
13,0.0
14,7.474508013394396
15,-11.442782982027602
16,3.838414587194052
17,-8.73659631734472
18,8.06705193959472
2,1, 1, 1, 0, 6, 0.00,15.00,Tuesday
7,-10.6
8,0.0
9,0.0
10,0.0
11,0.0
12,0.0
13,0.0
14,7.4146235644879658
15,-11.44392807818261
16,3.7872065922848039
17,-8.739744003920294
18,8.008430168019647
2,1, 1, 1, 0, 6,15.00,30.00,Tuesday
7,-10.6
8,0.0
9,0.0
10,0.0
11,0.0
12,0.0
13,0.0
14,7.355388497025721
15,-11.445039360344574
16,3.737145877139824
17,-8.749292689259278
18,7.948514999228593
2,1, 1, 1, 0, 6,30.00,45.00,Tuesday
7,-10.6
8,0.0
9,0.0
10,0.0
11,0.0
12,0.0
13,0.0
14,7.29563416083301
15,-11.446192056604021
16,3.6872806739256704
17,-8.759388617043556
18,7.887618206295256
2,1, 1, 1, 0, 6,45.00,60.00,Tuesday
7,-10.6
8,0.0
9,0.0
10,0.0
11,0.0
12,0.0
13,0.0
14,7.2356057312723209
15,-11.447341511807498
16,3.6370774428995675
17,-8.76962144027209
18,7.826268000625368
2,1, 1, 1, 0, 7, 0.00,15.00,Tuesday
7,-10.6
8,0.0
9,0.0
10,0.0
11,0.0
12,0.0
13,0.0
14,7.1774244921823249
15,-11.425762726158246
16,3.5784768323041478
17,-8.807190323712803
18,7.765090152233874
2,1, 1, 1, 0, 7,15.00,30.00,Tuesday
7,-10.6
8,0.0
9,0.0
10,0.0
11,0.0
12,0.0
13,0.0
14,7.119171523922844
15,-11.405303471166562
16,3.5220155239964017
17,-8.84514230319428
18,7.70440738523814
2,1, 1, 1, 0, 7,30.00,45.00,Tuesday
7,-10.6
8,0.0
9,0.0
10,0.0
11,0.0
12,0.0
13,0.0
14,7.0612332850507999
15,-11.385889192659697
16,3.4660832317140377
17,-8.88214710484516
18,7.644202143148322
2,1, 1, 1, 0, 7,45.00,60.00,Tuesday
7,-10.6
8,0.0
9,0.0
10,0.0
11,0.0
12,0.0
13,0.0
14,7.0036123537483629
15,-11.367457504295336
16,3.410709197411734
17,-8.918036542127198
18,7.584369395001538
2,1, 1, 1, 0, 8, 0.00,15.00,Tuesday
7,-10.45
8,0.0
9,0.0
10,0.0
11,0.0
12,0.0
13,0.0
14,6.9456629837055019
15,-11.317142345138804
16,3.3835569745962177
17,-8.861514663260209
18,7.524667733475211
2,1, 1, 1, 0, 8,15.00,30.00,Tuesday
7,-10.3
8,215.5879980222353
9,1.0
10,22.819555959623899
11,1.0
12,22.819555959623899
13,215.5879980222353
14,7.018191883589941
15,-9.642973589255587
16,3.6387943449047386
17,-8.554464393547733
18,7.485835556958479
2,1, 1, 1, 0, 8,30.00,45.00,Tuesday
7,-10.15
8,1058.5392312119832
9,1.0
10,109.75755355442667
11,1.0
12,109.75755355442667
13,1058.5392312119832
14,7.44761862428453
15,-3.264878969923427
16,4.7525107857896959
17,-7.549725617967738
18,7.52603154370332
2,1, 1, 1, 0, 8,45.00,60.00,Tuesday
7,-10.0
8,1924.8399544048012
9,1.0
10,195.8764694434918
11,1.0
12,195.8764694434918
13,1924.8399544048012
14,7.988567379706333
15,3.2050121738951558
16,5.984886281779723
17,-6.555458849889419
18,7.6533073192957759
2,1, 1, 1, 0, 9, 0.00,15.00,Tuesday
7,-9.725
8,2788.1568045040946
9,1.0
10,278.97248314719988
11,1.0
12,278.97248314719988
13,2788.1568045040946
14,8.47592594460403
15,8.387106255826293
16,7.23375541217149
17,-5.673526706900134
18,7.841924952681595
2,1, 1, 1, 0, 9,15.00,30.00,Tuesday
7,-9.45
8,3698.191694964431
9,1.0
10,364.91995730569456
11,1.0
12,364.91995730569456
13,3698.191694964431
14,8.964739574515294
15,13.460140247711398
16,8.602021047356857
17,-4.773749267831761
18,8.079826006007162
2,1, 1, 1, 0, 9,30.00,45.00,Tuesday
7,-9.175
8,4300.2673206835229
9,1.0
10,420.35879993239237
11,1.0
12,420.35879993239237
13,4300.2673206835229
14,9.320684362550632
15,16.216418199429815
16,9.505004090267108
17,-4.212239549163769
18,8.344783150505029
2,1, 1, 1, 0, 9,45.00,60.00,Tuesday
7,-8.9
8,4925.271017558337
9,1.0
10,478.00138373643099
11,1.0
12,478.00138373643099
13,4925.271017558337
14,9.73556470006283
15,19.210299047444349
16,10.393681256590583
17,-3.638765029531214
18,8.625751603735209
2,1, 1, 1, 0,10, 0.00,15.00,Tuesday
7,-8.350000000000002
8,5563.47927965646
9,1.0
10,536.9185644770597
11,1.0
12,536.9185644770597
13,5563.47927965646
14,10.101825884233108
15,20.32340622813338
16,11.318302704539633
17,-3.0091640649704347
18,8.923276939566439
2,1, 1, 1, 0,10,15.00,30.00,Tuesday
7,-7.800000000000001
8,6223.735720388039
9,1.0
10,598.0969199229219
11,1.0
12,598.0969199229219
13,6223.735720388039
14,10.500999997797902
15,21.573095860703149
16,12.259713180789334
17,-2.3757199328674689
18,9.064592340654901
2,1, 1, 1, 0,10,30.00,45.00,Tuesday
7,-7.25
8,6656.871608685562
9,1.0
10,637.6133352894237
11,1.0
12,637.6133352894237
13,6656.871608685562
14,10.775777039006357
15,21.6284619015408
16,12.941436547710737
17,-1.918468895663807
18,9.337637387203868
2,1, 1, 1, 0,10,45.00,60.00,Tuesday
7,-6.7
8,7083.627635407371
9,1.0
10,676.6412284283772
11,1.0
12,676.6412284283772
13,7083.627635407371
14,11.042698884204269
15,21.784971432883656
16,13.56300084022007
17,-1.4657660742146277
18,9.540197835765959
2,1, 1, 1, 0,11, 0.00,15.00,Tuesday
7,-6.275
8,7502.619881932496
9,1.0
10,715.0112779846514
11,1.0
12,715.0112779846514
13,7502.619881932496
14,11.462976036377788
15,23.884728016792658
16,14.251280435798208
17,-0.803189509623337
18,10.007114466022206
2,1, 1, 1, 0,11,15.00,30.00,Tuesday
7,-5.85
8,7911.749570952164
9,1.0
10,752.5077794605232
11,1.0
12,752.5077794605232
13,7911.749570952164
14,11.93646147414926
15,25.82199752259092
16,14.99286842482826
17,-0.15045699107253086
18,10.443233666642304
2,1, 1, 1, 0,11,30.00,45.00,Tuesday
7,-5.425
8,7790.156876744835
9,1.0
10,742.5988714321785
11,1.0
12,742.5988714321785
13,7790.156876744835
14,12.228167004551685
15,25.673964562842998
16,15.25900451934001
17,0.1696460074051629
18,10.849591857902834
2,1, 1, 1, 0,11,45.00,60.00,Tuesday
7,-5.0
8,7616.415097398768
9,1.0
10,727.8169025450712
11,1.0
12,727.8169025450712
13,7616.415097398768
14,12.506346863891692
15,25.445910547757977
16,15.428156434802702
17,0.4612676306584831
18,11.209726659276385
2,1, 1, 1, 0,12, 0.00,15.00,Tuesday
7,-4.575
8,7317.63187899619
9,1.0
10,700.3759009170325
11,1.0
12,700.3759009170325
13,7317.63187899619
14,12.70679502166413
15,24.704092813957826
16,15.456714131169349
17,0.7074044711288252
18,11.519676142340466
2,1, 1, 1, 0,12,15.00,30.00,Tuesday
7,-4.15
8,7096.045470548525
9,1.0
10,681.6705029034473
11,1.0
12,681.6705029034473
13,7096.045470548525
14,12.92732907468751
15,24.374504535220788
16,15.54662787295922
17,1.0135842472102468
18,11.792113690353155
2,1, 1, 1, 0,12,30.00,45.00,Tuesday
7,-3.7249999999999998
8,6229.736928425406
9,1.0
10,602.01865277251
11,1.0
12,602.01865277251
13,6229.736928425406
14,12.841436619324952
15,21.345801547336575
16,14.985826056074302
17,0.9073553903504035
18,12.00243737168277
2,1, 1, 1, 0,12,45.00,60.00,Tuesday
7,-3.3
8,5087.904404183855
9,1.0
10,493.55004396206007
11,1.0
12,493.55004396206007
13,5087.904404183855
14,12.64670178580968
15,17.16884427178315
16,13.989180590361002
17,0.5835651210119295
18,12.117972157324509
2,1, 1, 1, 0,13, 0.00,15.00,Tuesday
7,-3.0249999999999996
8,4201.063393949559
9,1.0
10,412.335026418112
11,1.0
12,412.335026418112
13,4201.063393949559
14,12.512642775292456
15,14.32588330562585
16,13.186574633198746
17,0.3797319686184437
18,12.15722664857727
2,1, 1, 1, 0,13,15.00,30.00,Tuesday
7,-2.75
8,3076.892122430221
9,1.0
10,305.94037763660148
11,1.0
12,305.94037763660148
13,3076.892122430221
14,12.176349831621647
15,10.153599889508954
16,12.009178182599328
17,-0.03026107810421763
18,12.13211476893768
2,1, 1, 1, 0,13,30.00,45.00,Tuesday
7,-2.475
8,2809.0935899127655
9,1.0
10,281.0763483922329
11,1.0
12,281.0763483922329
13,2809.0935899127655
14,12.149030489855932
15,9.642479308955436
16,11.719796789040402
17,0.12183465897618362
18,12.086263470109673
2,1, 1, 1, 0,13,45.00,60.00,Tuesday
7,-2.2
8,2546.8736709552365
9,1.0
10,256.7721209415886
11,1.0
12,256.7721209415886
13,2546.8736709552365
14,12.109570727863013
15,9.036462402215728
16,11.532094276837825
17,0.30055658517812847
18,12.046879295679198
2,1, 1, 1, 0,14, 0.00,15.00,Tuesday
7,-1.9250000000000003
8,2080.536760270814
9,1.0
10,210.73276284570657
11,1.0
12,210.73276284570657
13,2080.536760270814
14,11.94552130269596
15,7.490134306182325
16,11.070336013190115
17,0.27822948082712176
18,12.00914988728556
2,1, 1, 1, 0,14,15.00,30.00,Tuesday
7,-1.6500000000000002
8,1848.1882299855229
9,1.0
10,189.38488290342594
11,1.0
12,189.38488290342594
13,1848.1882299855229
14,11.905114569856436
15,7.0887892427462619
16,10.85602400160758
17,0.4458848596481175
18,11.973519223612098
2,1, 1, 1, 0,14,30.00,45.00,Tuesday
7,-1.375
8,1762.648528253172
9,1.0
10,179.3940297802914
11,1.0
12,179.3940297802914
13,1762.648528253172
14,11.888748241651572
15,7.2134707116008329
16,10.813639131160926
17,0.6958347078274301
18,11.942006145913532
2,1, 1, 1, 0,14,45.00,60.00,Tuesday
7,-1.1
8,1676.1315823352277
9,1.0
10,169.43349014176136
11,1.0
12,169.43349014176136
13,1676.1315823352277
14,11.8683872722212
15,7.314565198939195
16,10.763815031943466
17,0.9442604310487468
18,11.914189852498968
2,1, 1, 1, 0,15, 0.00,15.00,Tuesday
7,-1.1
8,1764.2336451764168
9,1.0
10,178.15692317953907
11,1.0
12,178.15692317953907
13,1764.2336451764168
14,11.933753643438559
15,8.134126138466492
16,10.870803208017549
17,1.072685094933604
18,11.894756249161582
2,1, 1, 1, 0,15,15.00,30.00,Tuesday
7,-1.1
8,1657.44905719483
9,1.0
10,166.40516310952945
11,1.0
12,166.40516310952945
13,1657.44905719483
14,11.875745577441594
15,7.773122749392764
16,10.75609650612563
17,1.0382776030974129
18,11.877735762321285
2,1, 1, 1, 0,15,30.00,45.00,Tuesday
7,-1.1
8,1397.5312645024297
9,1.0
10,140.8967369711617
11,1.0
12,140.8967369711617
13,1397.5312645024297
14,11.731145471817018
15,6.560290549913954
16,10.430176275020927
17,0.8643665697849201
18,11.85193095943675
2,1, 1, 1, 0,15,45.00,60.00,Tuesday
7,-1.1
8,1150.0543343484979
9,1.0
10,116.57355796743004
11,1.0
12,116.57355796743004
13,1150.0543343484979
14,11.620488060508338
15,5.366126713400709
16,10.098752912997952
17,0.682321671098066
18,11.80496902260101
2,1, 1, 1, 0,16, 0.00,15.00,Tuesday
7,-1.1
8,912.7487358563033
9,1.0
10,93.14939272689483
11,1.0
12,93.14939272689483
13,912.7487358563033
14,11.49832413674718
15,4.318006180914199
16,9.805746599131112
17,0.5886272291581349
18,11.737720592723628
2,1, 1, 1, 0,16,15.00,30.00,Tuesday
7,-1.1
8,566.636069103818
9,1.0
10,57.94047897402063
11,1.0
12,57.94047897402063
13,566.636069103818
14,11.28273354224044
15,2.20009780602832
16,9.351020728789309
17,0.36716645301521569
18,11.644374070951443
2,1, 1, 1, 0,16,30.00,45.00,Tuesday
7,-1.1
8,439.3280485110057
9,1.0
10,45.38251793443488
11,1.0
12,45.38251793443488
13,439.3280485110057
14,11.194168640278948
15,1.5965689443478837
16,9.141483790595658
17,0.3606850674467523
18,11.540172974317019
2,1, 1, 1, 0,16,45.00,60.00,Tuesday
7,-1.1
8,306.6800834820858
9,1.0
10,32.02625108222755
11,1.0
12,32.02625108222755
13,306.6800834820858
14,11.065140360034232
15,0.7415744417857383
16,8.952360618264607
17,0.355210959593137
18,11.438135966802202
2,1, 1, 1, 0,17, 0.00,15.00,Tuesday
7,-1.1
8,168.21359625367695
9,1.0
10,17.762198626050539
11,1.0
12,17.762198626050539
13,168.21359625367695
14,10.912281302855114
15,-0.4984738361444973
16,8.71184150501847
17,0.2419712959571143
18,11.33626850512894
2,1, 1, 1, 0,17,15.00,30.00,Tuesday
7,-1.1
8,0.0
9,0.0
10,0.0
11,0.0
12,0.0
13,0.0
14,10.708512883967038
15,-2.3303988094751766
16,8.393475494901964
17,-0.0024255293133137458
18,11.22077659426245
2,1, 1, 1, 0,17,30.00,45.00,Tuesday
7,-1.1
8,0.0
9,0.0
10,0.0
11,0.0
12,0.0
13,0.0
14,10.642453262229811
15,-2.460862115577526
16,8.304670403399541
17,0.04298563531460786
18,11.107965042096862
2,1, 1, 1, 0,17,45.00,60.00,Tuesday
7,-1.1
8,0.0
9,0.0
10,0.0
11,0.0
12,0.0
13,0.0
14,10.55977950894785
15,-2.642529925949309
16,8.258831581744972
17,0.1028352697973105
18,11.012663042013069
2,1, 1, 1, 0,18, 0.00,15.00,Tuesday
7,-1.25
8,0.0
9,0.0
10,0.0
11,0.0
12,0.0
13,0.0
14,10.48871313655019
15,-2.7915893259453519
16,8.16097531370383
17,-0.03812152502274557
18,10.934991233332913
2,1, 1, 1, 0,18,15.00,30.00,Tuesday
7,-1.4
8,0.0
9,0.0
10,0.0
11,0.0
12,0.0
13,0.0
14,10.42342927358841
15,-2.944093360221031
16,8.076511134084285
17,-0.17207939871497048
18,10.868943544261552
2,1, 1, 1, 0,18,30.00,45.00,Tuesday
7,-1.5499999999999999
8,0.0
9,0.0
10,0.0
11,0.0
12,0.0
13,0.0
14,10.36238916839672
15,-3.096281008372774
16,7.996828395182433
17,-0.305147672297835
18,10.80880834701243
2,1, 1, 1, 0,18,45.00,60.00,Tuesday
7,-1.7
8,0.0
9,0.0
10,0.0
11,0.0
12,0.0
13,0.0
14,10.303225238851745
15,-3.2486355855932267
16,7.920018364507541
17,-0.4375709471760274
18,10.751234524126576
2,1, 1, 1, 0,19, 0.00,15.00,Tuesday
7,-1.825
8,0.0
9,0.0
10,0.0
11,0.0
12,0.0
13,0.0
14,10.26606981837293
15,-3.1157395839076909
16,7.820743413672972
17,-0.6477831534904226
18,10.6979180887872
2,1, 1, 1, 0,19,15.00,30.00,Tuesday
7,-1.9500000000000002
8,0.0
9,0.0
10,0.0
11,0.0
12,0.0
13,0.0
14,10.229419699847814
15,-3.0623452679046627
16,7.737648174870856
17,-0.8419854319554361
18,10.650819535391449
2,1, 1, 1, 0,19,30.00,45.00,Tuesday
7,-2.075
8,0.0
9,0.0
10,0.0
11,0.0
12,0.0
13,0.0
14,10.18692755288063
15,-3.139873835963791
16,7.677388249545402
17,-0.9725098001430297
18,10.608598773782676
2,1, 1, 1, 0,19,45.00,60.00,Tuesday
7,-2.2
8,0.0
9,0.0
10,0.0
11,0.0
12,0.0
13,0.0
14,10.147968267717405
15,-3.1293256703851015
16,7.598508368560601
17,-1.1557209965551465
18,10.568175403556248
2,1, 1, 1, 0,20, 0.00,15.00,Tuesday
7,-1.9250000000000003
8,0.0
9,0.0
10,0.0
11,0.0
12,0.0
13,0.0
14,10.12561207662516
15,-2.831058513170249
16,7.626505285821054
17,-0.9614111042124023
18,10.530533012033679
2,1, 1, 1, 0,20,15.00,30.00,Tuesday
7,-1.6500000000000002
8,0.0
9,0.0
10,0.0
11,0.0
12,0.0
13,0.0
14,10.102648844717742
15,-2.5355410199205616
16,7.651829245307624
17,-0.7554225606212413
18,10.496320528334714
2,1, 1, 1, 0,20,30.00,45.00,Tuesday
7,-1.375
8,0.0
9,0.0
10,0.0
11,0.0
12,0.0
13,0.0
14,10.081687116738504
15,-2.241128237588515
16,7.678545288123246
17,-0.5469720198072992
18,10.465034519730543
2,1, 1, 1, 0,20,45.00,60.00,Tuesday
7,-1.1
8,0.0
9,0.0
10,0.0
11,0.0
12,0.0
13,0.0
14,10.062355135678832
15,-1.9478621221864907
16,7.707437173132462
17,-0.33610660471299527
18,10.435880637703555
2,1, 1, 1, 0,21, 0.00,15.00,Tuesday
7,-1.25
8,0.0
9,0.0
10,0.0
11,0.0
12,0.0
13,0.0
14,10.004948061225046
15,-2.217068892537807
16,7.671358621487684
17,-0.3742782903069042
18,10.40216965181462
2,1, 1, 1, 0,21,15.00,30.00,Tuesday
7,-1.4
8,0.0
9,0.0
10,0.0
11,0.0
12,0.0
13,0.0
14,9.948319946930337
15,-2.4272494910251014
16,7.614569252215119
17,-0.4517035219753325
18,10.359383838890335
2,1, 1, 1, 0,21,30.00,45.00,Tuesday
7,-1.5499999999999999
8,0.0
9,0.0
10,0.0
11,0.0
12,0.0
13,0.0
14,9.879216791679287
15,-2.7556180526926385
16,7.571874271121715
17,-0.4731760510682079
18,10.307043158527338
2,1, 1, 1, 0,21,45.00,60.00,Tuesday
7,-1.7
8,0.0
9,0.0
10,0.0
11,0.0
12,0.0
13,0.0
14,9.804886113402182
15,-3.1890275090047299
16,7.529718104037499
17,-0.46118912412293869
18,10.24758433379953
2,1, 1, 1, 0,22, 0.00,15.00,Tuesday
7,-1.5499999999999999
8,0.0
9,0.0
10,0.0
11,0.0
12,0.0
13,0.0
14,9.793138143219558
15,-2.7231741881497477
16,7.472599216114816
17,-0.48894048372562795
18,10.193895881592632
2,1, 1, 1, 0,22,15.00,30.00,Tuesday
7,-1.4
8,0.0
9,0.0
10,0.0
11,0.0
12,0.0
13,0.0
14,9.772134788830656
15,-2.4076807082392
16,7.454081400110795
17,-0.48007827843264297
18,10.152838081353752
2,1, 1, 1, 0,22,30.00,45.00,Tuesday
7,-1.25
8,0.0
9,0.0
10,0.0
11,0.0
12,0.0
13,0.0
14,9.750927708574903
15,-2.1941585103029528
16,7.449621237798908
17,-0.4047650357360908
18,10.121923987592885
2,1, 1, 1, 0,22,45.00,60.00,Tuesday
7,-1.1
8,0.0
9,0.0
10,0.0
11,0.0
12,0.0
13,0.0
14,9.733498789863545
15,-1.923373208723885
16,7.438126976309491
17,-0.3621321110703093
18,10.09581985026674
2,1, 1, 1, 0,23, 0.00,15.00,Tuesday
7,-1.25
8,0.0
9,0.0
10,0.0
11,0.0
12,0.0
13,0.0
14,9.675123626124466
15,-2.2265630636180608
16,7.341846957517248
17,-0.6414980748488688
18,10.0641543977241
2,1, 1, 1, 0,23,15.00,30.00,Tuesday
7,-1.4
8,0.0
9,0.0
10,0.0
11,0.0
12,0.0
13,0.0
14,9.618909133718905
15,-2.531300863910508
16,7.233520642691474
17,-0.9321963966004319
18,10.02222746187004
2,1, 1, 1, 0,23,30.00,45.00,Tuesday
7,-1.5499999999999999
8,0.0
9,0.0
10,0.0
11,0.0
12,0.0
13,0.0
14,9.557767456362912
15,-2.836690809373997
16,7.123127490186448
17,-1.224222499194525
18,9.971574747935584
2,1, 1, 1, 0,23,45.00,60.00,Tuesday
7,-1.7
8,0.0
9,0.0
10,0.0
11,0.0
12,0.0
13,0.0
14,9.492743846119394
15,-3.14242542371365
16,7.008568606810741
17,-1.518032106308567
18,9.915333395434323
2,1, 1, 1, 0,24, 0.00,15.00,Tuesday
7,-1.7
8,0.0
9,0.0
10,0.0
11,0.0
12,0.0
13,0.0
14,9.443091245624159
15,-3.196779148251136
16,6.949336665557439
17,-1.5853603608854883
18,9.85910861816376
2,1, 1, 1, 0,24,15.00,30.00,Tuesday
7,-1.7
8,0.0
9,0.0
10,0.0
11,0.0
12,0.0
13,0.0
14,9.391505832683452
15,-3.251642966998222
16,6.894414245969756
17,-1.6496145450125824
18,9.805707093761617
2,1, 1, 1, 0,24,30.00,45.00,Tuesday
7,-1.7
8,0.0
9,0.0
10,0.0
11,0.0
12,0.0
13,0.0
14,9.341167492178377
15,-3.3063999767478875
16,6.839354259536492
17,-1.714063051207006
18,9.754906347793219
2,1, 1, 1, 0,24,45.00,60.00,Tuesday
7,-1.7
8,0.0
9,0.0
10,0.0
11,0.0
12,0.0
13,0.0
14,9.291711272391297
15,-3.3611620670992146
16,6.785209121016919
17,-1.7785430514635437
18,9.705570490970138
End of Data
 Number of Records Written=        1152
